ITEM: TIMESTEP
0
ITEM: NUMBER OF ATOMS
32
ITEM: BOX BOUNDS pp pp pp
-2.7144176165949063e+00 2.7144176165949063e+00
-2.7144176165949063e+00 2.7144176165949063e+00
-1.3572088082974532e+00 1.3572088082974532e+00
ITEM: ATOMS id type x y z xu yu zu mux muy muz
1 1 8.174386e-01 -1.501027e+00 1.063792e+00 -4.611397e+00 -1.501027e+00 -1.650625e+00 6.257070e-01 -1.111089e-01 -7.721046e-01
2 1 -1.588588e+00 2.240173e+00 4.706893e-01 -1.588588e+00 -3.188662e+00 -2.243728e+00 -5.102594e-01 8.585717e-01 -4.989931e-02
3 1 -1.181894e+00 -2.684862e+00 -1.180094e+00 -1.181894e+00 -2.684862e+00 -1.180094e+00 -4.166477e-03 1.976644e-01 9.802609e-01
4 1 1.720590e-01 1.364395e+00 -1.152251e+00 1.720590e-01 -4.064441e+00 -1.152251e+00 1.172157e-01 2.990754e-01 -9.470029e-01
5 1 -2.503860e+00 -1.624931e+00 -1.148432e+00 -2.503860e+00 -1.624931e+00 -1.148432e+00 -3.868419e-01 -6.136740e-01 6.883005e-01
6 1 -1.234548e+00 -3.224403e-01 5.533956e-01 -1.234548e+00 -3.224403e-01 -2.161022e+00 2.496992e-01 -1.564010e-01 -9.556093e-01
7 1 1.194615e+00 4.921384e-01 -5.168295e-01 1.194615e+00 4.921384e-01 -3.231247e+00 3.635978e-03 -4.590891e-01 -8.883828e-01
8 1 1.834203e+00 1.516095e+00 4.384391e-02 1.834203e+00 -3.912740e+00 -2.670574e+00 -8.435469e-01 1.178269e-01 -5.239709e-01
9 1 -5.406701e-01 2.239526e+00 5.241489e-01 -5.406701e-01 2.239526e+00 -2.190269e+00 4.587204e-02 1.326830e-01 -9.900965e-01
10 1 -3.972258e-01 7.566025e-01 -2.323436e-01 -3.972258e-01 7.566025e-01 -2.946761e+00 6.551715e-01 -4.305019e-01 6.208208e-01
11 1 -7.183933e-01 1.158741e+00 2.095009e-01 -7.183933e-01 1.158741e+00 -2.504917e+00 2.293367e-01 -6.843477e-01 -6.921509e-01
12 1 1.022524e+00 1.787745e-01 2.989948e-01 1.022524e+00 1.787745e-01 -5.129840e+00 6.711103e-01 -4.162119e-01 -6.134970e-01
13 1 -1.425080e+00 -2.405657e+00 2.180112e-01 -1.425080e+00 3.023179e+00 2.180112e-01 -5.029961e-01 4.612636e-01 -7.309109e-01
14 1 -1.743237e+00 1.621197e+00 7.955801e-02 -1.743237e+00 1.621197e+00 -2.634860e+00 -7.988534e-01 3.194110e-01 -5.097154e-01
15 1 -9.908151e-01 -2.648879e+00 -1.194812e+00 -9.908151e-01 2.779956e+00 -1.194812e+00 5.516163e-01 -6.234158e-01 5.541409e-01
16 1 2.694872e+00 4.128090e-01 1.548530e-01 2.694872e+00 4.128090e-01 -2.559565e+00 -8.512725e-01 2.398829e-01 4.666812e-01
17 1 -1.549454e+00 -5.342007e-01 -6.250925e-01 -1.549454e+00 -5.342007e-01 -6.250925e-01 -7.678145e-02 -3.950496e-02 9.962650e-01
18 1 -2.315195e+00 -2.622162e+00 -1.899805e-01 -2.315195e+00 -2.622162e+00 -1.899805e-01 -7.569385e-01 -3.331561e-01 -5.621842e-01
19 1 2.159018e+00 1.609547e+00 -1.225386e+00 2.159018e+00 -3.819289e+00 -1.225386e+00 2.087904e-01 -6.905535e-02 9.755193e-01
20 1 2.202409e+00 1.439536e-01 1.335860e+00 2.202409e+00 -5.284882e+00 -1.378557e+00 -1.498424e-01 -9.847320e-01 8.860086e-02
21 1 -1.450040e+00 -1.528138e+00 2.079771e-04 -1.450040e+00 -1.528138e+00 2.079771e-04 -9.915462e-01 8.451238e-02 9.845693e-02
22 1 -1.065736e+00 6.350243e-01 -7.513801e-01 -1.065736e+00 -4.793811e+00 -7.513801e-01 -6.569043e-01 -7.223747e-02 7.505055e-01
23 1 -5.619633e-01 1.869971e+00 -9.467270e-01 -5.619633e-01 1.869971e+00 -9.467270e-01 7.911745e-01 5.177931e-01 -3.254737e-01
24 1 -2.104052e+00 -2.247249e+00 1.132226e-01 3.324784e+00 -2.247249e+00 -2.601195e+00 -4.193441e-02 2.313330e-01 -9.719704e-01
25 1 -8.683542e-01 -1.464065e-01 -9.035772e-01 -8.683542e-01 -1.464065e-01 -9.035772e-01 -1.565297e-01 8.488593e-02 -9.840187e-01
26 1 -4.652717e-01 1.233405e-01 -3.826889e-01 -5.894107e+00 1.233405e-01 -3.097107e+00 6.487662e-01 7.578954e-01 6.853403e-02
27 1 -1.047854e+00 2.381441e+00 1.203997e+00 -1.047854e+00 2.381441e+00 -1.510421e+00 1.084633e-01 -6.457074e-01 -7.558424e-01
28 1 2.500699e+00 -7.280086e-01 4.841083e-01 2.500699e+00 -7.280086e-01 -2.230309e+00 -3.622892e-01 9.115845e-01 1.943199e-01
29 1 -1.416084e+00 -1.706659e+00 8.328319e-01 -1.416084e+00 3.722176e+00 -1.881586e+00 -8.971242e-02 -4.468772e-01 8.900856e-01
30 1 -6.370519e-01 4.711337e-01 -8.549434e-02 -6.370519e-01 4.711337e-01 -8.549434e-02 -6.030497e-01 -7.976848e-01 -5.485290e-03
31 1 8.225326e-01 -4.415456e-01 3.381678e-01 8.225326e-01 -4.415456e-01 3.381678e-01 -6.909878e-01 -7.162886e-01 9.729629e-02
32 1 2.186174e+00 1.574093e+00 -1.693951e-02 2.186174e+00 1.574093e+00 -1.693951e-02 8.903660e-01 3.247001e-01 3.190896e-01
