Simple geometry for testing compute threebody in 3D.

5 atoms

1 atom types

-2.0 2.0 xlo xhi
-2.0 2.0 ylo yhi
-2.0 2.0 zlo zhi

Masses

  1 1.0

Atoms

  1 1 0.3 0.1 -0.2
  2 1 0.0 0.4 -0.3
  3 1 0.1 -0.2 0.1
  4 1 -0.2 0.0 0.0
  5 1 -0.4 -0.3 -0.4